20
 energy: -42.089020344940 gnorm: 0.284343692480 xtb: 6.3.3 (4ae9cef)
C         0.22300000000000   -0.23800000000000   -1.91900000000000
C         0.82200000000000    0.94500000000000   -1.49200000000000
C        -0.15900000000000    1.72600000000000   -0.88600000000000
C        -1.12600000000000   -0.18800000000000   -1.57800000000000
C        -1.36200000000000    1.02600000000000   -0.94000000000000
C        -1.38200000000000   -1.21200000000000   -0.67000000000000
C         0.80600000000000   -1.29400000000000   -1.22300000000000
C        -0.18700000000000   -1.89300000000000   -0.45300000000000
C         1.77500000000000    0.62500000000000   -0.53000000000000
C         1.76400000000000   -0.75700000000000   -0.36600000000000
C         0.18600000000000    1.89300000000000    0.45200000000000
C         1.38100000000000    1.21100000000000    0.66900000000000
C        -1.76500000000000    0.75800000000000    0.36600000000000
C        -1.77600000000000   -0.62500000000000    0.53000000000000
C        -0.80600000000000    1.29300000000000    1.22200000000000
C         0.15800000000000   -1.72700000000000    0.88600000000000
C         1.36100000000000   -1.02600000000000    0.93900000000000
C         1.12500000000000    0.18700000000000    1.57800000000000
C        -0.82200000000000   -0.94500000000000    1.49100000000000
C        -0.22400000000000    0.23900000000000    1.91900000000000
20
 energy: -42.168664844159 gnorm: 0.094520081730 xtb: 6.3.3 (4ae9cef)
C         0.22919366167261   -0.24502690479389   -1.96713362527992
C         0.84320872403487    0.96904680349422   -1.52942702096559
C        -0.16236357987775    1.77008466616404   -0.90766079360599
C        -1.15478277254874   -0.19342810686810   -1.61754381266262
C        -1.39677049787504    1.05174831258820   -0.96259639318000
C        -1.41779965822959   -1.24277434109831   -0.68813008729597
C         0.82610377997127   -1.32601042908935   -1.25520080524166
C        -0.19187163652343   -1.94208422799888   -0.46322869842397
C         1.82047016034048    0.64169573670988   -0.54456221716404
C         1.80932518830875   -0.77716813721397   -0.37422837029606
C         0.19103131535539    1.94216747200119    0.46245334832896
C         1.41685798048377    1.24212321416632    0.68735105390766
C        -1.81038504306354    0.77759029796049    0.37401255090154
C        -1.82141598937306   -0.64179064406544    0.54435704005977
C        -0.82636536593193    1.32518852952024    1.25427028143411
C         0.16144648843907   -1.77089906380526    0.90750697972891
C         1.39575888266360   -1.05179169578151    0.96181935286455
C         1.15393229550688    0.19284741377906    1.61741421636059
C        -0.84350261121531   -0.96904353346262    1.52841070721361
C        -0.23007132213828    0.24552463779366    1.96711629331610
20
 energy: -42.179560535131 gnorm: 0.032286479515 xtb: 6.3.3 (4ae9cef)
C         0.23320600149762   -0.25056751880871   -1.98689998396517
C         0.85503051058442    0.97952277502756   -1.54395351875770
C        -0.16252932073658    1.79036469534485   -0.91441289985553
C        -1.16837424768747   -0.19825923897485   -1.63310516443794
C        -1.41298301931480    1.06221798766222   -0.96958997231630
C        -1.43669591401852   -1.25918133923994   -0.69719250428875
C         0.83594501368751   -1.34187089468792   -1.27116030532520
C        -0.19500824035975   -1.96738498403618   -0.46845101803550
C         1.84429621287337    0.65073090879685   -0.55182817030737
C         1.83242190974413   -0.78703246610374   -0.37842171115143
C         0.19420624604837    1.96743062167975    0.46782282057356
C         1.43588011740291    1.25879936019204    0.69654319841767
C        -1.83341244505250    0.78705100806091    0.37808707441748
C        -1.84517851843105   -0.65094015692600    0.55148920792992
C        -0.83648904098813    1.34127996103240    1.27038465251241
C         0.16164705708520   -1.79089434865407    0.91409181619342
C         1.41205082800011   -1.06230328333976    0.96899997401771
C         1.16763846495828    0.19796666325488    1.63281378470736
C        -0.85561834787295   -0.97960245858889    1.54306280804681
C        -0.23403326742016    0.25067270830858    1.98671991162454
20
 energy: -42.181138521868 gnorm: 0.037138507872 xtb: 6.3.3 (4ae9cef)
C         0.23655993940110   -0.25634579319384   -1.98631915251759
C         0.86165708626532    0.98018158911187   -1.54153893171846
C        -0.16018122414897    1.79441801019466   -0.90915531872136
C        -1.17157800881107   -0.20392525867845   -1.63076040334060
C        -1.41696253450249    1.06198086709237   -0.96421415146432
C        -1.44549038193902   -1.26741513774932   -0.70035069019183
C         0.84006456779165   -1.34867384478535   -1.27719307942206
C        -0.19709802693416   -1.97854483614609   -0.47127760570600
C         1.85551423880440    0.65502409416701   -0.55441428682959
C         1.84230229018151   -0.79062580045896   -0.38085669422880
C         0.19630397824494    1.97852938088150    0.47070397981931
C         1.44470656598311    1.26713342454355    0.69977537638819
C        -1.84322482189275    0.79049661981985    0.38044102169015
C        -1.85637235484614   -0.65526552517891    0.55401697619044
C        -0.84074340615471    1.34823923651715    1.27650768571659
C         0.15933739255960   -1.79478418673077    0.90874420239089
C         1.41609147763869   -1.06211671547503    0.96370772027150
C         1.17085822376702    0.20373638998701    1.63037015418862
C        -0.86237748611752   -0.98031913570883    1.54078168501764
C        -0.23736751529052    0.25627662179055    1.98603151246728
20
 energy: -42.176741454993 gnorm: 0.071594075813 xtb: 6.3.3 (4ae9cef)
C         0.25264542020435   -0.28349684512810   -1.97187612682802
C         0.88771311733974    0.97463691682222   -1.51896251356728
C        -0.14984125469018    1.80232672999475   -0.87660246384442
C        -1.17675519114994   -0.22962186042070   -1.60634840604604
C        -1.42740140811012    1.05603432406962   -0.93115095598593
C        -1.47647173107300   -1.29777661607248   -0.71107530720662
C         0.85723160742959   -1.37574060083743   -1.30025413210961
C        -0.20329837316570   -2.02086817090464   -0.48257894096171
C         1.89700201969982    0.66978006799434   -0.56459628993948
C         1.87938837122388   -0.80556776242932   -0.39154470886069
C         0.20253486609141    2.02060659025158    0.48218822158846
C         1.47576719595906    1.29780839003360    0.71076872975475
C        -1.88004448902528    0.80498480501771    0.39084159329974
C        -1.89779250251046   -0.67010769718558    0.56401159576305
C        -0.85835255412531    1.37589054967921    1.29987657274406
C         0.14913825146606   -1.80214558583132    0.87585845688869
C         1.42673728394983   -1.05637284559817    0.93089733927761
C         1.17602341620282    0.22972898522252    1.60562353618827
C        -0.88883581762243   -0.97496250050381    1.51870554682156
C        -0.25338822809414    0.28286312582601    1.97121825302361
20
 energy: -42.182538262944 gnorm: 0.018798222354 xtb: 6.3.3 (4ae9cef)
C         0.24210411706456   -0.26544642079909   -1.97792812344068
C         0.86974232993676    0.97669833972719   -1.53104019131045
C        -0.15624931149419    1.79458899991389   -0.89608998302347
C        -1.17093687955822   -0.21253300565613   -1.61888039251821
C        -1.41804780942584    1.05831045549199   -0.95076154663450
C        -1.45538086564343   -1.27741241963022   -0.70356547108823
C         0.84611611068925   -1.35783700781613   -1.28486509908998
C        -0.19897902483960   -1.99322059881066   -0.47487409120209
C         1.86954447714470    0.66013991792649   -0.55837697307021
C         1.85455640004267   -0.79583452462373   -0.38473414749685
C         0.19818757258009    1.99308310269599    0.47437531527081
C         1.45461665039838    1.27724090087072    0.70308923870754
C        -1.85537466832047    0.79556138573359    0.38421143678142
C        -1.87037071825583   -0.66039423097241    0.55789994811229
C        -0.84694954951295    1.35761460734232    1.28431413346597
C         0.15546711088497   -1.79474732185311    0.89557024859073
C         1.41726415044856   -1.05852594267117    0.95031724516570
C         1.17018571261077    0.21241643999963    1.61836086738181
C        -0.87059449883153   -0.97689354138019    1.53049989576169
C        -0.24290130591865    0.26519086451106    1.97747768963670
20
 energy: -42.182795524386 gnorm: 0.013835966789 xtb: 6.3.3 (4ae9cef)
C         0.24211326205746   -0.26467639448504   -1.97557489691614
C         0.86869861431244    0.97553195996088   -1.52949440172399
C        -0.15632932398597    1.79276638225313   -0.89525137143699
C        -1.16827629481045   -0.21159860235658   -1.61612538084336
C        -1.41567273241837    1.05751335382582   -0.94960373636479
C        -1.45332142335947   -1.27589247701878   -0.70262606211737
C         0.84611265588345   -1.35711707974979   -1.28430101322540
C        -0.19826701667054   -1.99261719036644   -0.47404340643204
C         1.86816259656424    0.65983124023122   -0.55906099763661
C         1.85310292339688   -0.79588243276425   -0.38473845482253
C         0.19747486427380    1.99246725607702    0.47355011618114
C         1.45254182882723    1.27570941901703    0.70214568834081
C        -1.85391856448981    0.79563576172062    0.38421607995163
C        -1.86899080543996   -0.66007053869094    0.55857747727651
C        -0.84692777372762    1.35689557250258    1.28375630348971
C         0.15554828064523   -1.79294658596722    0.89474515574923
C         1.41488075456965   -1.05772709790457    0.94913533243605
C         1.16750506264119    0.21145353846268    1.61561166018686
C        -0.86952440057124   -0.97571862762619    1.52896200169908
C        -0.24291250769814    0.26444254287882    1.97511990620820
20
 energy: -42.183191527390 gnorm: 0.013286537729 xtb: 6.3.3 (4ae9cef)
C         0.24417868795466   -0.26421847690207   -1.96731018343262
C         0.86920285162243    0.97292956205339   -1.52413770238451
C        -0.15519398468426    1.78988044744228   -0.89049244305404
C        -1.15996422758682   -0.21063960604714   -1.60518233884948
C        -1.40891437176298    1.05516756882262   -0.94309819972748
C        -1.44914443912438   -1.27431493280826   -0.69926634670692
C         0.84844130644320   -1.35788531348546   -1.28455054348869
C        -0.19703622309927   -1.99645801463187   -0.47222002715487
C         1.86900377024382    0.66137441371398   -0.56314996480590
C         1.85208313884475   -0.79750260438463   -0.38661362128704
C         0.19624124209165    1.99624227017657    0.47174552084233
C         1.44833780930092    1.27412332326495    0.69879295126669
C        -1.85287250964859    0.79730001845649    0.38608660996757
C        -1.86982802258433   -0.66157890649103    0.56264281395778
C        -0.84923894077718    1.35770597062292    1.28405341174850
C         0.15441682533993   -1.79007213455969    0.88999124600559
C         1.40811471592129   -1.05538281693988    0.94258186898172
C         1.15914026888639    0.21043282885441    1.60466300452781
C        -0.86998889302761   -0.97310915334020    1.52365896810610
C        -0.24497900435359    0.26400555618262    1.96680497548746
20
 energy: -42.183605723563 gnorm: 0.028418034733 xtb: 6.3.3 (4ae9cef)
C         0.24728886623411   -0.26281882238855   -1.96003941624210
C         0.87222521738580    0.97340652431129   -1.52180196232582
C        -0.15316045208334    1.79100367242241   -0.88749263159616
C        -1.15109513022901   -0.20891380339590   -1.59444238102802
C        -1.40187491505338    1.05415374214118   -0.93702539555753
C        -1.44380366786031   -1.27331499855173   -0.69321362642964
C         0.85182544037530   -1.35900098836268   -1.28436270719838
C        -0.19662280595069   -2.00328794196920   -0.46968237921728
C         1.87215273347117    0.66503368226854   -0.56899665193711
C         1.85082558158153   -0.79913765475993   -0.38979802625570
C         0.19582468928481    2.00302056313308    0.46920921468618
C         1.44298686521576    1.27311985165135    0.69274314449442
C        -1.85160069195819    0.79897286906402    0.38927403263572
C        -1.87296945791033   -0.66521298955237    0.56847687416689
C        -0.85260930723368    1.35884681001393    1.28390204192972
C         0.15237647264050   -1.79119976108028    0.88699213794038
C         1.40107056749092   -1.05436407179806    0.93647794585626
C         1.15024504915967    0.20866247692779    1.59392876822318
C        -0.87299397399390   -0.97359260516576    1.52135793828891
C        -0.24809108056675    0.26262344509087    1.95949307956608
20
 energy: -42.184473137723 gnorm: 0.040872342906 xtb: 6.3.3 (4ae9cef)
C         0.25051264513625   -0.26023509614337   -1.95458758493703
C         0.87592546599113    0.97595312551108   -1.52239128624727
C        -0.15108865568370    1.79450502780394   -0.88683590415819
C        -1.14254672626707   -0.20609643635185   -1.58559259849894
C        -1.39508012904030    1.05439970928230   -0.93266557833573
C        -1.43672465795585   -1.27138864969072   -0.68546099230486
C         0.85515993065270   -1.35914269475360   -1.28327928437973
C        -0.19637607230709   -2.01000320842366   -0.46637717861431
C         1.87503506345362    0.66915002121689   -0.57531006514680
C         1.84821281417300   -0.80039947478542   -0.39317562793874
C         0.19557898235312    2.00970732318227    0.46590239736143
C         1.43590089901840    1.27118893456419    0.68498875006411
C        -1.84898657423446    0.80026561609662    0.39265740946805
C        -1.87585159959357   -0.66931593453781    0.57478774462094
C        -0.85592545549847    1.35899516327608    1.28283175930723
C         0.15029574677584   -1.79471297564812    0.88633940089798
C         1.39426861615239   -1.05460049039008    0.93209416988373
C         1.14168434896651    0.20581487098011    1.58509322978208
C        -0.87667942349768   -0.97614479978301    1.52196093694631
C        -0.25131521859478    0.26005996859417    1.95402030222973
20
 energy: -42.185787216302 gnorm: 0.044486070295 xtb: 6.3.3 (4ae9cef)
C         0.25445122432354   -0.25674404868115   -1.94905627669235
C         0.88051022487402    0.97960937825691   -1.52449038994554
C        -0.14894975723581    1.79962060253084   -0.88704165093429
C        -1.13281833399971   -0.20232282527077   -1.57624131568021
C        -1.38735161030979    1.05540920849565   -0.92827842288812
C        -1.42700284122780   -1.26807727819474   -0.67549349068807
C         0.85946624997649   -1.35900613632720   -1.28183948735476
C        -0.19587711919583   -2.01767266788230   -0.46220275120092
C         1.87807854036425    0.67384262459784   -0.58292215401010
C         1.84467013642219   -0.80215430918133   -0.39733482375732
C         0.19508345171283    2.01735306208935    0.46172729221471
C         1.42617094141229    1.26787200938175    0.67501926623771
C        -1.84544488406769    0.80205161971207    0.39682179640185
C        -1.87889817090189   -0.67399838378200    0.58239934802599
C        -0.86020867334658    1.35885979765179    1.28140011856327
C         0.14814941113108   -1.79984075936154    0.88655155728485
C         1.38653020072025   -1.05559975949244    0.92768390904626
C         1.13194442412610    0.20201389037032    1.57575683789134
C        -0.88124887380514   -0.97980554286645    1.52406887382394
C        -0.25525454097281    0.25658951795340    1.94847176366178
20
 energy: -42.167911178830 gnorm: 0.141368366632 xtb: 6.3.3 (4ae9cef)
C         0.28183287335485   -0.22677599291002   -1.92910477584302
C         0.91888058591251    1.01875508556272   -1.56358717411813
C        -0.13740639962752    1.85487168444302   -0.90544200501950
C        -1.07638668541098   -0.17110458803218   -1.53387074592163
C        -1.34281984078863    1.07357564203505   -0.91322884431970
C        -1.34746025444058   -1.23738175947739   -0.59588872031924
C         0.89461126591335   -1.35438379039386   -1.26905355768018
C        -0.19563296653806   -2.07215026021435   -0.43138431794196
C         1.90128891406703    0.70947738423831   -0.63586768016556
C         1.81510883661132   -0.81656397899792   -0.42920298950943
C         0.19487023024772    2.07185892861693    0.43084020597835
C         1.34662642214832    1.23713462729267    0.59534788335668
C        -1.81597363819943    0.81658852450724    0.42877784157627
C        -1.90213747903716   -0.70966973133574    0.63541148340061
C        -0.89519445556505    1.35410018927322    1.26852102250557
C         0.13653452900774   -1.85515348271264    0.90499604627018
C         1.34193935330902   -1.07367525437423    0.91261807955440
C         1.07557838571480    0.17077461664430    1.53351518551934
C        -0.91960905057610   -1.01900387649055    1.56304787927426
C        -0.28265062610316    0.22672603232542    1.92855518340270
20
 energy: -42.187948842572 gnorm: 0.017044224587 xtb: 6.3.3 (4ae9cef)
C         0.26457062221639   -0.24545617686344   -1.95178665325371
C         0.89579571429207    0.99978663321372   -1.54929014712074
C        -0.14599183685780    1.82758923634300   -0.90179643043849
C        -1.11779406556757   -0.19116431325337   -1.56878133738801
C        -1.37750852427486    1.06667660292012   -0.92907129370757
C        -1.39894087914236   -1.25674381020009   -0.64686400815582
C         0.87030905008043   -1.35772772469044   -1.27909092100007
C        -0.19747828541566   -2.03679403519704   -0.45236655462465
C         1.88748449683139    0.68679132935958   -0.59942184267023
C         1.83591256787909   -0.80603637227464   -0.40667526326900
C         0.19669984586761    2.03655739127623    0.45185056410927
C         1.39814144353434    1.25653221942954    0.64636444324042
C        -1.83674637715701    0.80591866315616    0.40618748098788
C        -1.88830298757442   -0.68699822675213    0.59894651865480
C        -0.87103505413224    1.35749248887597    1.27855496582764
C         0.14516599265494   -1.82781284641191    0.90131549732812
C         1.37667399370475   -1.06683946031534    0.92853021792371
C         1.11700316578052    0.19092492733529    1.56835080296024
C        -0.89657991717586   -1.00000845717984    1.54877464711177
C        -0.26537896554375    0.24531193122863    1.95126931348444
20
 energy: -42.188424825857 gnorm: 0.007707559979 xtb: 6.3.3 (4ae9cef)
C         0.26052035059889   -0.24791623548284   -1.95564841245899
C         0.89219797507863    0.99640479967044   -1.54859516649799
C        -0.14893482055430    1.82367076088324   -0.90176563023214
C        -1.12658074555383   -0.19365425201373   -1.57826106353475
C        -1.38373734480349    1.06562779052423   -0.93335798158664
C        -1.40531530521310   -1.25786542083003   -0.65462707055486
C         0.86856853275812   -1.35750240123286   -1.27969952118142
C        -0.19805470763106   -2.02976682188088   -0.45554050151469
C         1.88375025161542    0.68261517983549   -0.59266008096165
C         1.83765643842943   -0.80571843355143   -0.40417132817680
C         0.19726762035463    2.02956575873625    0.45502084022019
C         1.40451946678088    1.25765624113859    0.65411482730188
C        -1.83849165107117    0.80557163394211    0.40369335867731
C        -1.88456226431581   -0.68282454809555    0.59217560019436
C        -0.86931100429992    1.35726345394900    1.27916941497822
C         0.14811689625287   -1.82389035299894    0.90127506582181
C         1.38291148682052   -1.06580445671063    0.93284984673704
C         1.12579717296701    0.19344052386280    1.57780734953161
C        -0.89299365221898   -0.99661929957608    1.54806146901047
C        -0.26132469599474    0.24774607983080    1.95515898422704
20
 energy: -42.188485559712 gnorm: 0.005253439525 xtb: 6.3.3 (4ae9cef)
C         0.25943420038035   -0.24826573391282   -1.95614850190197
C         0.89184487895473    0.99537651557913   -1.54929001062185
C        -0.15045157552673    1.82335277728135   -0.90166856612702
C        -1.12921939849580   -0.19397901148894   -1.58161174039685
C        -1.38522806512889    1.06560315244707   -0.93461206595225
C        -1.40572731517072   -1.25716670598973   -0.65598608935022
C         0.86966758384023   -1.35788201649165   -1.28035340233468
C        -0.19829814836260   -2.02821875719055   -0.45592725550329
C         1.88230368122561    0.68168940822993   -0.59104481657766
C         1.83829195108779   -0.80681461604057   -0.40416324746755
C         0.19750718482789    2.02803373858549    0.45541458230468
C         1.40493180970202    1.25696098919692    0.65547339798588
C        -1.83912160081396    0.80664714246793    0.40368011514274
C        -1.88310886759810   -0.68189761742053    0.59055307442786
C        -0.87042934195409    1.35765481160288    1.27983095061519
C         0.14964142583431   -1.82356984551802    0.90117093281378
C         1.38441121411651   -1.06579292553914    0.93411569033343
C         1.12843364334947    0.19377419198028    1.58114116232876
C        -0.89264665721728   -0.99558575533294    1.54875942891766
C        -0.26023660305073    0.24808025755392    1.95566636136336
20
 energy: -42.188525181038 gnorm: 0.003016852900 xtb: 6.3.3 (4ae9cef)
C         0.25892421140287   -0.24805277657469   -1.95565184792102
C         0.89191700535979    0.99464161673536   -1.55070015359952
C        -0.15211774959183    1.82374853883156   -0.90173203090564
C        -1.13090317699172   -0.19382340053933   -1.58418600102716
C        -1.38574951936322    1.06590077455433   -0.93526374808138
C        -1.40492869643874   -1.25580740791814   -0.65632081095839
C         0.87179491488821   -1.35875701561174   -1.28142644901610
C        -0.19823726083134   -2.02697217356368   -0.45561189662918
C         1.88024087862653    0.68084183737378   -0.59002211217190
C         1.83912697263140   -0.80862105532248   -0.40472319561420
C         0.19744179301599    2.02678917656564    0.45511047526435
C         1.40413029292150    1.25560369905836    0.65581251667274
C        -1.83994745325739    0.80843165691897    0.40423242891774
C        -1.88104062170457   -0.68104772961227    0.58952514021665
C        -0.87258124389510    1.35854352161757    1.28091257922461
C         0.15131912551308   -1.82395652579031    0.90123000866330
C         1.38494530536106   -1.06610161699309    0.93477484443130
C         1.13010700570700    0.19362540793604    1.58369084613113
C        -0.89271821421108   -0.99484059221893    1.55018133938820
C        -0.25972356914244    0.24785406455306    1.95516806701448
20
 energy: -42.188545946666 gnorm: 0.002756741902 xtb: 6.3.3 (4ae9cef)
C         0.25914051115431   -0.24747951373481   -1.95476679689018
C         0.89208878852990    0.99460500841983   -1.55226121351717
C        -0.15314192715162    1.82454632918918   -0.90219259241273
C        -1.13109785824682   -0.19336408281833   -1.58502372676681
C        -1.38535002133439    1.06639213050631   -0.93519329268866
C        -1.40391543328460   -1.25472809445952   -0.65600937262408
C         0.87353260812215   -1.35969409925816   -1.28239100509928
C        -0.19773285364807   -2.02590043469628   -0.45489709919429
C         1.87808710855503    0.68000762830166   -0.58968043312876
C         1.83990562309727   -0.81001464904462   -0.40534944775592
C         0.19693410527771    2.02570906561195    0.45440276725294
C         1.40311427646186    1.25452416249645    0.65550740175433
C        -1.84071945511755    0.80981457697080    0.40485248359291
C        -1.87888646411174   -0.68021051273215    0.58918263313190
C        -0.87433364408509    1.35948733373195    1.28188182518124
C         0.15234952139421   -1.82474567599048    0.90169109620467
C         1.38455413107310   -1.06659700913252    0.93470296044564
C         1.13029277092435    0.19316731790762    1.58451251603128
C        -0.89288450991846   -0.99479603243870    1.55175399207057
C        -0.25993727769156    0.24727655116983    1.95427730441242
20
 energy: -42.188568941706 gnorm: 0.003148556511 xtb: 6.3.3 (4ae9cef)
C         0.25989362959864   -0.24642990480613   -1.95360072269861
C         0.89240961087813    0.99520443197475   -1.55498756448737
C        -0.15424789247664    1.82619276114556   -0.90343049472124
C        -1.13048603752028   -0.19246209481305   -1.58527024436274
C        -1.38436011517530    1.06730483057371   -0.93482748691630
C        -1.40257618994586   -1.25348028533432   -0.65538293354981
C         0.87560294042433   -1.36103532118073   -1.28367992674327
C        -0.19656019762830   -2.02394148957242   -0.45359860844189
C         1.87450396019031    0.67850206981695   -0.58947222665222
C         1.84100966122565   -0.81163591114203   -0.40621263942116
C         0.19575750916027    2.02374031017515    0.45310861345081
C         1.40177383783306    1.25327744371250    0.65488950804169
C        -1.84181244375597    0.81142642819887    0.40570679839680
C        -1.87530190039145   -0.67869970111653    0.58897356434009
C        -0.87641853453290    1.36083681389363    1.28317611816490
C         0.15345735608486   -1.82638617857422    0.90293111130953
C         1.38357148904082   -1.06751307630329    0.93433011016374
C         1.12967412275997    0.19226449734656    1.58474854856197
C        -0.89320102493400   -0.99539171934955    1.55449513169971
C        -0.26068978083536    0.24622609535460    1.95310334386538
20
 energy: -42.188589167217 gnorm: 0.003191572234 xtb: 6.3.3 (4ae9cef)
C         0.26083189488447   -0.24529309402881   -1.95299654043729
C         0.89288814185468    0.99639374231122   -1.55828890374624
C        -0.15511204734352    1.82836592462705   -0.90526954808334
C        -1.12930601631592   -0.19135938190565   -1.58499535574506
C        -1.38331790998427    1.06835707351318   -0.93457246729872
C        -1.40152027117607   -1.25256457079478   -0.65483213241361
C         0.87709184123476   -1.36215172691548   -1.28473281895027
C        -0.19502962942510   -2.02134827931724   -0.45217757685653
C         1.87047426797823    0.67665158044558   -0.58941044710149
C         1.84192381438450   -0.81277484647162   -0.40694678769206
C         0.19422480434371    2.02113797982689    0.45168600651775
C         1.40071793217830    1.25236287042127    0.65434276554968
C        -1.84272012568601    0.81256365073730    0.40643903644521
C        -1.87127436941305   -0.67684710489793    0.58891320793515
C        -0.87790966422462    1.36195417940026    1.28423146566787
C         0.15431829608743   -1.82855492920061    0.90477287085287
C         1.38253026462701   -1.06856272986915    0.93406826875154
C         1.12849304598317    0.19116137668641    1.58447304611788
C        -0.89367669486092   -0.99658326099509    1.55780329236291
C        -0.26162757512680    0.24509154642719    1.95249261812373
20
 energy: -42.188608803268 gnorm: 0.002811439186 xtb: 6.3.3 (4ae9cef)
C         0.26174556979651   -0.24414913622971   -1.95325219718796
C         0.89367656889698    0.99808555368002   -1.56232942333867
C        -0.15595845703423    1.83112549990150   -0.90769242314624
C        -1.12780777127594   -0.19004228806071   -1.58454716782630
C        -1.38247400529725    1.06950118608528   -0.93471087701765
C        -1.40079039071671   -1.25189154312344   -0.65455875438664
C         0.87803159765802   -1.36291115031749   -1.28548877954814
C        -0.19316170247106   -2.01784901264318   -0.45066776726809
C         1.86592032409268    0.67439136684399   -0.58943216145193
C         1.84255678746743   -0.81349134289496   -0.40751846907034
C         0.19235657413434    2.01763037113865    0.45016906866921
C         1.39998940604991    1.25169085316194    0.65406925825232
C        -1.84335481494826    0.81328557962299    0.40701642214034
C        -1.86672766286494   -0.67458993091987    0.58893952490745
C        -0.87883790798880    1.36270645610663    1.28498717165670
C         0.15515895214086   -1.83130796731812    0.90719666795846
C         1.38168093426087   -1.06969963086055    0.93420438134755
C         1.12699945119767    0.18984534016083    1.58403213500478
C        -0.89446294383655   -0.99828163332140    1.56183954029054
C        -0.26254050926153    0.24395142898761    1.95274385001463
20
 energy: -42.188622361822 gnorm: 0.002246786220 xtb: 6.3.3 (4ae9cef)
C         0.26220218944110   -0.24332142566654   -1.95430666331000
C         0.89462521417346    0.99958079596049   -1.56597879708106
C        -0.15683119787895    1.83365189756434   -0.90989032844201
C        -1.12666061901321   -0.18887296166930   -1.58436651960630
C        -1.38220397398109    1.07040759714946   -0.93539429884512
C        -1.40041872215867   -1.25141300154583   -0.65467091916430
C         0.87836223756048   -1.36304373830549   -1.28570871277195
C        -0.19157420943172   -2.01433912522739   -0.44949370961178
C         1.86214654175780    0.67241722662671   -0.58949399020337
C         1.84271358124839   -0.81379436899640   -0.40781080933930
C         0.19076928118233    2.01413388139412    0.44898722074740
C         1.39962352119825    1.25121853864736    0.65417434656687
C        -1.84350691990840    0.81359042600627    0.40730668178982
C        -1.86295194435619   -0.67261613791412    0.58899522959210
C        -0.87916371467283    1.36284407522392    1.28521026170646
C         0.15602335353668   -1.83384796288449    0.90939295414213
C         1.38140669092781   -1.07060808956098    0.93488804613043
C         1.12586651499378    0.18867682702330    1.58387138171520
C        -0.89542519315178   -0.99979056566401    1.56548454302492
C        -0.26300263146723    0.24312611183857    1.95380408295984
20
 energy: -42.188626935500 gnorm: 0.001196622657 xtb: 6.3.3 (4ae9cef)
C         0.26183314017295   -0.24344857083374   -1.95495870777136
C         0.89485844588704    0.99935991580026   -1.56606237589083
C        -0.15721215429701    1.83367915144398   -0.90984040474280
C        -1.12691142083337   -0.18884724354581   -1.58466648421694