60
 energy: -128.377465088242 gnorm: 0.346046917481 xtb: 6.3.3 (4ae9cef)
C         0.18800000000000   -0.06100000000000   -3.46500000000000
C         0.25800000000000    1.31100000000000   -3.20300000000000
C        -1.01600000000000    1.74400000000000   -2.82300000000000
C        -1.13100000000000   -0.47600000000000   -3.24600000000000
C        -1.87500000000000    0.64000000000000   -2.85000000000000
C        -1.38600000000000   -1.73100000000000   -2.67000000000000
C        -0.32200000000000   -2.56600000000000   -2.31500000000000
C         1.25500000000000   -0.90000000000000   -3.10800000000000
C         1.00200000000000   -2.15000000000000   -2.53400000000000
C         2.38900000000000   -0.36300000000000   -2.49000000000000
C         1.39600000000000    1.85000000000000   -2.58300000000000
C         2.46100000000000    1.01500000000000   -2.22700000000000
C         1.25600000000000    2.82000000000000   -1.58500000000000
C        -1.15700000000000    2.71800000000000   -1.82100000000000
C        -0.02300000000000    3.25500000000000   -1.20300000000000
C        -2.15500000000000    2.58400000000000   -0.85000000000000
C        -2.87700000000000    0.50500000000000   -1.87500000000000
C        -3.01700000000000    1.47500000000000   -0.87700000000000
C        -2.38300000000000   -1.86500000000000   -1.69900000000000
C        -3.13100000000000   -0.74500000000000   -1.30100000000000
C        -0.66100000000000   -3.21700000000000   -1.12400000000000
C        -1.93500000000000   -2.78300000000000   -0.74400000000000
C         0.32100000000000   -3.45300000000000   -0.14800000000000
C         1.97900000000000   -2.38500000000000   -1.56200000000000
C         2.83700000000000   -1.28100000000000   -1.53500000000000
C         1.63700000000000   -3.03800000000000   -0.36600000000000
C         3.35700000000000   -0.82500000000000   -0.31200000000000
C         2.97800000000000    1.46900000000000   -1.01000000000000
C         2.23300000000000    2.58400000000000   -0.61300000000000
C         3.42700000000000    0.54700000000000   -0.05000000000000
C         1.93500000000000    2.78300000000000    0.74500000000000
C        -0.32100000000000    3.45200000000000    0.14900000000000
C        -1.63800000000000    3.03800000000000    0.36700000000000
C         0.66200000000000    3.21600000000000    1.12500000000000
C        -1.98000000000000    2.38500000000000    1.56200000000000
C        -3.35700000000000    0.82500000000000    0.31200000000000
C        -3.42800000000000   -0.54700000000000    0.05100000000000
C        -2.83700000000000    1.28000000000000    1.53600000000000
C        -2.23400000000000   -2.58500000000000    0.61400000000000
C        -2.97800000000000   -1.46900000000000    1.01100000000000
C         0.02400000000000   -3.25600000000000    1.20400000000000
C        -1.25700000000000   -2.82100000000000    1.58600000000000
C         2.15500000000000   -2.58400000000000    0.85100000000000
C         3.01600000000000   -1.47600000000000    0.87800000000000
C         1.15700000000000   -2.71900000000000    1.82200000000000
C         3.13100000000000    0.74400000000000    1.30200000000000
C         2.38200000000000    1.86500000000000    1.70000000000000
C         2.87700000000000   -0.50500000000000    1.87600000000000
C         0.32200000000000    2.56600000000000    2.31600000000000
C        -1.00200000000000    2.14900000000000    2.53500000000000
C         1.38500000000000    1.73000000000000    2.67100000000000
C        -2.38900000000000    0.36200000000000    2.49100000000000
C        -2.46100000000000   -1.01500000000000    2.22800000000000
C        -1.39700000000000   -1.85100000000000    2.58400000000000
C        -1.25600000000000    0.89900000000000    3.10900000000000
C         1.01600000000000   -1.74500000000000    2.82400000000000
C         1.87400000000000   -0.64000000000000    2.85100000000000
C         1.13000000000000    0.47500000000000    3.24700000000000
C        -0.25700000000000   -1.31100000000000    3.20400000000000
C        -0.18800000000000    0.06100000000000    3.46600000000000
60
 energy: -128.445548534588 gnorm: 0.147022583772 xtb: 6.3.3 (4ae9cef)
C         0.19736573549414   -0.06810216812356   -3.49170270151040
C         0.26868524741440    1.32625069910743   -3.22543196186350
C        -1.02620837860326    1.76644919379383   -2.83913336037416
C        -1.14238572058064   -0.48964539409309   -3.26943821573053
C        -1.89854763156598    0.64431652120066   -2.86655559604836
C        -1.39543349585393   -1.73596312228184   -2.69732435242097
C        -0.31413885167561   -2.58473948014595   -2.33626693978337
C         1.25759861905833   -0.90107535629224   -3.13706628995218
C         1.00020162285732   -2.17148413720916   -2.55377537960238
C         2.41021345979158   -0.35531975829567   -2.50925951500833
C         1.39932368739561    1.86155891465375   -2.60973743746270
C         2.48117566677037    1.01288270595134   -2.24816269139769
C         1.25701060734911    2.84734082906747   -1.59561999864707
C        -1.16604795485068    2.73363278523843   -1.84423821537076
C        -0.01344017436714    3.27930881710522   -1.21631477933366
C        -2.18024028903269    2.59739097331301   -0.85766380338055
C        -2.89355667293032    0.51033981250335   -1.89853196142222
C        -3.03588904093450    1.49620981441930   -0.88442117382524
C        -2.40912100381283   -1.87226598281742   -1.71061263345244
C        -3.15163732672856   -0.75994773136438   -1.31521872940406
C        -0.65935531660256   -3.24598656084574   -1.12619299988257
C        -1.95415853834360   -2.80524550925448   -0.73982029323879
C         0.31554058102049   -3.48059010360771   -0.15681776653606
C         1.99335244191707   -2.41049409069754   -1.56590210652678
C         2.86513284895154   -1.28828092129981   -1.53844044109720
C         1.65390705715189   -3.05896388618115   -0.37852566304768
C         3.38138322778630   -0.83558361859356   -0.32425523612912
C         3.00682704013824    1.47420878121637   -1.01112889015322
C         2.25012623385606    2.60769092776543   -0.60775350155635
C         3.45268944474404    0.55871248648415   -0.05800028640534
C         1.95404114861947    2.80499868507250    0.74077957276095
C        -0.31574493161510    3.47993346195552    0.15785072710603
C        -1.65453812691885    3.05867303196471    0.37944674507690
C         0.65959275542586    3.24530683648183    1.12708639630814
C        -1.99400197170339    2.41013802155310    1.56640113576925
C        -3.38151968835033    0.83543169825305    0.32476395725197
C        -3.45339849755084   -0.55896998733857    0.05904164664243
C        -2.86534786895310    1.28757280424573    1.53947650050679
C        -2.25064866953363   -2.60847017654054    0.60867031146550
C        -3.00686065477208   -1.47448058558995    1.01198775609789
C         0.01373342422179   -3.28017358009511    1.21746964301958
C        -1.25754071897216   -2.84816771339737    1.59666862539186
C         2.18007857831434   -2.59756240204593    0.85854503191442
C         3.03520945148054   -1.49685201194217    0.88538525241519
C         1.16580207786323   -2.73450459313457    1.84523525010566
C         3.15144543341782    0.75922708557700    1.31626453906234
C         2.40848002657868    1.87199005169623    1.71161083026418
C         2.89341151012839   -0.51052343277824    1.89954776476815
C         0.31385451770808    2.58448142045899    2.33720588846769
C        -1.00035246190273    2.17069455529200    2.55475371575680
C         1.39481421766340    1.73522484277230    2.69822196087826
C        -2.41037726898967    0.35460665627947    2.51017533983739
C        -2.48116821544503   -1.01324850049431    2.24903174981626
C        -1.39982822751677   -1.86247515489233    2.61070491107819
C        -1.25828361380539    0.90039848734540    3.13801827603459
C         1.02599887428147   -1.76725321502906    2.84012073007521
C         1.89794596291702   -0.64459022531488    2.86748887545725
C         1.14179171613336    0.48884562432263    3.27038858310343
C        -0.26838438417214   -1.32662744942879    3.22635621400037
C        -0.19757752036642    0.06777032403490    3.49261499013101
60
 energy: -128.462664864172 gnorm: 0.021647224447 xtb: 6.3.3 (4ae9cef)
C         0.20403929325456   -0.07312516139016   -3.50990131912223
C         0.27624027425472    1.33684094018230   -3.24068820768684
C        -1.03324332205862    1.78201591406932   -2.84997309250243
C        -1.15023827616081   -0.49932387255492   -3.28543646639270
C        -1.91490513131796    0.64720583333832   -2.87767443922685
C        -1.40184575798836   -1.73916066692293   -2.71616729263525
C        -0.30843685218659   -2.59743948413589   -2.35082748056447
C         1.25931143345002   -0.90161180642723   -3.15708093977002
C         0.99869768773856   -2.18615412539184   -2.56729163645012
C         2.42486940873480   -0.34981838994061   -2.52242246133429
C         1.40130735447217    1.86940664276247   -2.62815480233433
C         2.49484301506389    1.01113438646519   -2.26267017040165
C         1.25735305940801    2.86622918627375   -1.60282175478434
C        -1.17221237873384    2.74419159168355   -1.86033457899962
C        -0.00666193686908    3.29593525703153   -1.22562331996151
C        -2.19769343340846    2.60631461340611   -0.86281368733378
C        -2.90471407083593    0.51403621285930   -1.91480348305149
C        -3.04863518487186    1.51094248755502   -0.88946552134062
C        -2.42717449348339   -1.87705750062066   -1.71852939869553
C        -3.16553161038714   -0.77042784091515   -1.32502709929972
C        -0.65800969451741   -3.26586179772262   -1.12742445916789
C        -1.96742660562164   -2.82052967885262   -0.73667524653276
C         0.31159257996881   -3.49945925741755   -0.16306090504150
C         2.00309559435218   -2.42812005004414   -1.56828772607239
C         2.88455624272957   -1.29326402754180   -1.54053305692575
C         1.66553332214295   -3.07322879812928   -0.38735945774580
C         3.39797264232582   -0.84301921256738   -0.33291399316687
C         3.02655640565750    1.47758138636437   -1.01161993135169
C         2.26173373839820    2.62404169849663   -0.60381735586367
C         3.47016593405304    0.56689795678622   -0.06370478961286
C         1.96718287645573    2.82006252725668    0.73763569473379
C        -0.31185959540467    3.49894009428144    0.16405496777558
C        -1.66591280295479    3.07275154291307    0.38825724893371
C         0.65780434799334    3.26530842101503    1.12830389292651
C        -2.00349879898131    2.42759017478550    1.56914651740771
C        -3.39823426546204    0.84263457414004    0.33376813784767
C        -3.47058549866730   -0.56735547107023    0.06472072836692
C        -2.88488237628744    1.29271323935359    1.54149941720687
C        -2.26201545440994   -2.62463885929568    0.60473909370293
C        -3.02670924227225   -1.47803441696650    1.01249321064129
C         0.00645077039935   -3.29656439710328    1.22669171108224
C        -1.25760103100343   -2.86684284897721    1.60381454219643
C         2.19741995345118   -2.60675682822002    0.86370526965189
C         3.04826058823659   -1.51144616377737    0.89044486900800
C         1.17186081934145   -2.74486200290032    1.86129774196357
C         3.16517154361824    0.76989791578044    1.32603228163209
C         2.42677671064564    1.87655092071080    1.71949502568769
C         2.90440091626880   -0.51441453996236    1.91580486058330
C         0.30809200328134    2.59695358933932    2.35175233460937
C        -0.99892654576924    2.18555195465878    2.56823145676356
C         1.40149168483193    1.73860081398185    2.71706441525604
C        -2.42513914935476    0.34927982068581    2.52333255238945
C        -2.49498828379944   -1.01171047996371    2.26357390789918
C        -1.40152581054203   -1.87007883031470    2.62909585730846
C        -1.25968328068997    0.90107719837744    3.15799177023571
C         1.03291739302168   -1.78261401454800    2.85092041806461
C         1.91453110829255   -0.64766634236562    2.87857531526886
C         1.14985921810478    0.49870416817207    3.28634335293718
C        -0.27644211947855   -1.33739027859575    3.24154289798669
C        -0.20435491642910    0.07258608190955    3.51077458330169
60
 energy: -128.463512806134 gnorm: 0.002134746684 xtb: 6.3.3 (4ae9cef)
C         0.20531010930106   -0.07399335101927   -3.51606177035028
C         0.27769255549222    1.33978422751238   -3.24614811865236
C        -1.03535733938094    1.78616695380909   -2.85439249821600
C        -1.15251989587377   -0.50136198166529   -3.29109465725806
C        -1.91928567079667    0.64825978671657   -2.88217380569407
C        -1.40418375667687   -1.74135507979424   -2.72175406249713
C        -0.30781937228232   -2.60193541018402   -2.35536179887728
C         1.26082955933694   -0.90253126127641   -3.16326809755931
C         0.99942015200672   -2.19050570651647   -2.57190590764538
C         2.42954820582680   -0.34929968176849   -2.52694963289384
C         1.40290610464481    1.87242097206222   -2.63354232268898
C         2.49929469058902    1.01182830049045   -2.26711851971702
C         1.25856538085822    2.87196900694863   -1.60548833694794
C        -1.17432351926191    2.74850878812049   -1.86464243242915
C        -0.00561058973502    3.30173483295143   -1.22831290096829
C        -2.20255830406156    2.61021052142613   -0.86441544609466
C        -2.90923150754602    0.51510106168367   -1.91920284102621
C        -3.05355782615755    1.51469665997094   -0.89113805975693
C        -2.43237193784802   -1.87965026061529   -1.72148309056770
C        -3.17069081849608   -0.77284037146814   -1.32785978198811
C        -0.65844031336258   -3.27211883348357   -1.12867855027983
C        -1.97147317563899   -2.82569306960920   -0.73690826606084
C         0.31123857610764   -3.50582603843375   -0.16421137130122
C         2.00657146126605   -2.43325336394496   -1.57017180415718
C         2.89043344527006   -1.29533945098929   -1.54237250626336
C         1.66898527386288   -3.07845623860740   -0.38913617350593
C         3.40386024971553   -0.84504748953060   -0.33461491967828
C         3.03251626362807    1.47953366564571   -1.01264473203287
C         2.26571476110740    2.62917410185648   -0.60374504040362
C         3.47624422513028    0.56871428724070   -0.06470718786178
C         1.97119364149452    2.82518626148890    0.73786734219151
C        -0.31151751275055    3.50530027328269    0.16516745634495
C        -1.66930297502112    3.07792455303839    0.39005912200098
C         0.65817054368847    3.27159232731380    1.12959946029425
C        -2.00689748056871    2.43270227376066    1.57108853942924
C        -3.40416653635114    0.84454383043977    0.33551561198460
C        -3.47658857782751   -0.56924601893489    0.06564917069857
C        -2.89074887461142    1.29479672950455    1.54329334306560
C        -2.26602268578198   -2.62971572903211    0.60468246198276
C        -3.03278543570552   -1.48003355066860    1.01355744616509
C         0.00530785295854   -3.30227615774801    1.22929790106525
C        -1.25885188939211   -2.87250820542483    1.60645265286438
C         2.20227349638157   -2.61073992907786    0.86533741566133
C         3.05325514748861   -1.51523702129532    0.89207953347680
C         1.17399856533228   -2.74908034320719    1.86559204060085
C         3.17035837198471    0.77230460054901    1.32879676785056
C         2.43205564244885    1.87911061165994    1.72243189453451
C         2.90891940438259   -0.51559756867571    1.92014372959002
C         0.30751486543691    2.60141018893793    2.35631141156900
C        -0.99968527193374    2.18995595301797    2.57283557873910
C         1.40390268533765    1.74083423822859    2.72268939607473
C        -2.42984650819913    0.34877372842438    2.52786617594471
C        -2.49957645205737   -1.01238130257520    2.26805328444892
C        -1.40318084431976   -1.87297717521950    2.63448632920134
C        -1.26112764269880    0.90200288286623    3.16417710246487
C         1.03504626476739   -1.78670844360540    2.85533875438435
C         1.91897987497648   -0.64877325205173    2.88309189379611
C         1.15220893097863    0.50081009614158    3.29201597523828
C        -0.27798061358915   -1.34032358222061    3.24704964816992
C        -0.20561297387454    0.07345415355409    3.51697719354097
60
 energy: -128.463526516986 gnorm: 0.000587975737 xtb: 6.3.3 (4ae9cef)
C         0.20534417384695   -0.07399996618370   -3.51695529666348
C         0.27773594001116    1.34012093481399   -3.24698640685894
C        -1.03563948679067    1.78661601126308   -2.85515100462433
C        -1.15279727727964   -0.50147849283060   -3.29195806892058
C        -1.91975996162683    0.64843210197604   -2.88294166012311
C        -1.40455486293035   -1.74184386319739   -2.72246410290306
C        -0.30792376930876   -2.60262951784699   -2.35597501147682
C         1.26118847269353   -0.90277565118309   -3.16408188142983
C         0.99970493720178   -2.19105468297352   -2.57259063028893
C         2.43019984571495   -0.34942508421967   -2.52762271114866
C         1.40328113838713    1.87290693336198   -2.63420706667835
C         2.49992312038343    1.01211480843074   -2.26770604956334
C         1.25891296338246    2.87272144326155   -1.60592123681267
C        -1.17464397174809    2.74926453988059   -1.86511258667630
C        -0.00563640304818    3.30261964851867   -1.22865148751836
C        -2.20312227468613    2.61092468091191   -0.86463257168607
C        -2.90999733722509    0.51523511700276   -1.91967546266076
C        -3.05436138950778    1.51507263885456   -0.89137859488390
C        -2.43301094791964   -1.88018027868056   -1.72196708658993
C        -3.17150414226118   -0.77302609708268   -1.32819537011834
C        -0.65863770319449   -3.27296866489774   -1.12898863692278
C        -1.97200993020470   -2.82645853775438   -0.73714249361962
C         0.31132156519259   -3.50676567164906   -0.16423893296803
C         2.00710896925780   -2.43388769110818   -1.57060018642264
C         2.89120179207713   -1.29570456437596   -1.54280178062561
C         1.66942377480524   -3.07928783335047   -0.38921923228077
C         3.40476824883007   -0.84526860644895   -0.33467590296646
C         3.03329581282673    1.47994339101440   -1.01292418301695
C         2.26631503832081    2.62986938240491   -0.60392337581970
C         3.47716244483628    0.56884803540015   -0.06471448337123
C         1.97171417965646    2.82593536117698    0.73808538131575
C        -0.31161278268114    3.50624278004133    0.16517637863240
C        -1.66973519556035    3.07875966733585    0.39014870192050
C         0.65835104404649    3.27243901028393    1.12991221540026
C        -2.00741905019197    2.43334589430464    1.57152144441283
C        -3.40507058392097    0.84474453504718    0.33559170472223
C        -3.47748246398657   -0.56938621800665    0.06564629883182
C        -2.89150310778666    1.29516436653145    1.54372645948300
C        -2.26662845762203   -2.63040758186714    0.60485718604634
C        -3.03358635252883   -1.48046179262532    1.01385001985950
C         0.00533278293219   -3.30314384900015    1.22960333725530
C        -1.25921480896148   -2.87325346671385    1.60686876875362
C         2.20282864761773   -2.61144928821048    0.86556047141160
C         3.05406337459703   -1.51561384172453    0.89231457408772
C         1.17433076528868   -2.74980422748926    1.86605195702652
C         3.17119520718641    0.77248660747016    1.32912615154185
C         2.43270240508830    1.87964007096375    1.72290585660762
C         2.90969802408062   -0.51575639801150    1.92061236263100
C         0.30762257319698    2.60209566884176    2.35691511145445
C        -0.99998813844465    2.19051204823881    2.57351934825520
C         1.40426563616224    1.74131409193020    2.72339813543163
C        -2.43049638716979    0.34889187763750    2.52854606118028
C        -2.50022239867668   -1.01265500828475    2.26864224931655
C        -1.40357786429476   -1.87344951627607    2.63514888160204
C        -1.26148315443126    0.90224204326913    3.16500278689276
C         1.03533750687228   -1.78715229938310    2.85609703768227
C         1.91946450650579   -0.64895771153602    2.88387705610999
C         1.15249528714841    0.50093684406867    3.29289081776479
C        -0.27802827007297   -1.34065841697349    3.24791567085522
C        -0.20564170408603    0.07346428564857    3.51789106915449
60
 energy: -128.463526700199 gnorm: 0.000177048370 xtb: 6.3.3 (4ae9cef)
C         0.20530982058547   -0.07397000403872   -3.51704636106729
C         0.27769743860559    1.34013902381179   -3.24708880458383
C        -1.03567124948003    1.78662838928665   -2.85526304774362
C        -1.15280985289905   -0.50144686254334   -3.29205775087705
C        -1.91977622127697    0.64845946758072   -2.88305403200046
C        -1.40459591609565   -1.74192635325888   -2.72251077907120
C        -0.30797546899936   -2.60270296426780   -2.35602046471013
C         1.26125578063804   -0.90282181949637   -3.16414167422454
C         0.99977240855187   -2.19108304658044   -2.57266046243207
C         2.43026244074276   -0.34948498814735   -2.52769373586686
C         1.40335117830241    1.87296218513894   -2.63424953312371
C         2.49997702077853    1.01218383624355   -2.26775353045123
C         1.25898920180407    2.87277759897580   -1.60597585074553
C        -1.17468139164767    2.74936569897621   -1.86512547488439
C        -0.00567687295992    3.30270698120057   -1.22867657735588
C        -2.20314452334461    2.61102372451276   -0.86464851653269
C        -2.91010024805442    0.51524757874543   -1.91968491367661
C        -3.05446212825627    1.51507130992807   -0.89140552727985
C        -2.43305073705206   -1.88026696675682   -1.72203052567812
C        -3.17159383960407   -0.77300503048745   -1.32820755402414
C        -0.65868548728648   -3.27303734922628   -1.12904240867331
C        -1.97205345036268   -2.82653970092089   -0.73721221470514
C         0.31135799997962   -3.50687898520873   -0.16420586301463
C         2.00716950874667   -2.43392954002973   -1.57067113081076
C         2.89126098719324   -1.29575894272150   -1.54287733409902
C         1.66946033361421   -3.07940227545996   -0.38918756926352
C         3.40486632295216   -0.84527401585791   -0.33463710879055
C         3.03335541140051    1.48001607532209   -1.01298136987335
C         2.26638598265154    2.62993243457906   -0.60398072198417
C         3.47725575088453    0.56883459040015   -0.06468344296157
C         1.97176084897627    2.82602120759171    0.73815303173920
C        -0.31164990835651    3.50633897943559    0.16514173291681
C        -1.66975972051527    3.07885684100115    0.39012138468922
C         0.65839670845220    3.27251237618436    1.12997679299257
C        -2.00747270064891    2.43339045450805    1.57160062626857
C        -3.40517470848402    0.84474480557527    0.33556510710984
C        -3.47757165009642   -0.56937012059163    0.06561675737115
C        -2.89156379869398    1.29522274702306    1.54381129728965
C        -2.26668951432789   -2.63046512106433    0.60491559744303
C        -3.03365317591075   -1.48054399927503    1.01391343965952
C         0.00537985008453   -3.30325029675489    1.22961903702326
C        -1.25928900529075   -2.87331495846063    1.60691448039087
C         2.20285174512338   -2.61156421375400    0.86558239769153
C         3.05415656483986   -1.51561129664346    0.89234005768314
C         1.17437934351817   -2.74991246929753    1.86606213131032
C         3.17128822908498    0.77247266587835    1.32914049141585
C         2.43275233402084    1.87974206442053    1.72297188977716
C         2.90979437537457   -0.51577450691020    1.92061496696367
C         0.30767828101330    2.60218041214290    2.35696447836321
C        -1.00006534614564    2.19055010770583    2.57359642034670
C         1.40430313866785    1.74140365842749    2.72344905977700
C        -2.43056212292930    0.34895005807834    2.52862453461800
C        -2.50027778278969   -1.01271864920450    2.26868734675002
C        -1.40365206157637   -1.87350072764453    2.63518135563579
C        -1.26155534700270    0.90228979403429    3.16506952670075
C         1.03536882398709   -1.78716453377604    2.85619228093141
C         1.91947157443007   -0.64898695404988    2.88398035666967
C         1.15250678291811    0.50091534807000    3.29298335308837
C        -0.27799329931284   -1.34067239430348    3.24801219586041
C        -0.20560865852211    0.07343867195359    3.51797215202852
