80
 energy: -171.144872882291 gnorm: 0.315338577509 xtb: 6.3.3 (4ae9cef)
C         0.14400000000000   -0.13500000000000   -4.02300000000000
C         0.34000000000000    1.23100000000000   -3.81100000000000
C        -0.89300000000000    1.79900000000000   -3.48100000000000
C        -1.21100000000000   -0.41200000000000   -3.82200000000000
C        -1.85200000000000    0.78400000000000   -3.48900000000000
C        -1.55500000000000   -1.57100000000000   -3.11200000000000
C        -0.63500000000000   -2.62500000000000   -3.00800000000000
C         1.08900000000000   -1.02400000000000   -3.49100000000000
C         0.72000000000000   -2.34700000000000   -3.20800000000000
C         2.38900000000000   -0.58000000000000   -3.20600000000000
C         1.45000000000000    1.61500000000000   -3.04500000000000
C         2.58000000000000    0.78800000000000   -2.99400000000000
C         1.46600000000000    2.86700000000000   -2.41600000000000
C        -0.91800000000000    2.70300000000000   -2.41000000000000
C         0.23300000000000    3.43400000000000   -2.08600000000000
C        -2.12100000000000    2.95200000000000   -1.73600000000000
C        -2.79100000000000    0.76300000000000   -2.44800000000000
C        -3.08400000000000    1.93900000000000   -1.74200000000000
C        -2.78200000000000   -1.63700000000000   -2.43500000000000
C        -3.42100000000000   -0.44000000000000   -2.10100000000000
C        -2.89400000000000   -2.50900000000000   -1.34800000000000
C        -0.74700000000000   -3.49700000000000   -1.92200000000000
C        -1.80300000000000   -3.32700000000000   -1.01300000000000
C         1.46200000000000   -3.04300000000000   -2.25100000000000
C         0.54800000000000   -3.74200000000000   -1.45500000000000
C         3.13000000000000   -1.27400000000000   -2.24600000000000
C         2.57700000000000   -2.42500000000000   -1.66400000000000
C         3.44300000000000    0.94900000000000   -1.90700000000000
C         3.77600000000000   -0.32700000000000   -1.44500000000000
C         2.32700000000000    3.03500000000000   -1.32800000000000
C         3.17900000000000    1.97400000000000   -0.98500000000000
C         0.32600000000000    3.95600000000000   -0.79300000000000
C         1.62000000000000    3.70700000000000   -0.32600000000000
C        -2.03600000000000    3.47100000000000   -0.44100000000000
C        -0.76900000000000    3.79100000000000    0.07000000000000
C        -3.59600000000000    1.82300000000000   -0.44700000000000
C        -2.94600000000000    2.76800000000000    0.35300000000000
C        -3.93700000000000   -0.55800000000000   -0.80700000000000
C        -3.59700000000000   -1.83400000000000   -0.34700000000000
C        -3.86700000000000    0.54300000000000    0.06100000000000
C        -3.18000000000000   -1.97500000000000    0.98500000000000
C        -1.62100000000000   -3.70800000000000    0.32600000000000
C        -2.32800000000000   -3.03600000000000    1.32700000000000
C         0.76800000000000   -3.79200000000000   -0.07100000000000
C        -0.32600000000000   -3.95700000000000    0.79200000000000
C         2.94500000000000   -2.76800000000000   -0.35300000000000
C         2.03500000000000   -3.47200000000000    0.44100000000000
C         3.86600000000000   -0.54400000000000   -0.06100000000000
C         3.59500000000000   -1.82400000000000    0.44700000000000
C         3.59700000000000    1.83300000000000    0.34700000000000
C         3.93600000000000    0.55700000000000    0.80700000000000
C         1.80200000000000    3.32600000000000    1.01300000000000
C         2.89300000000000    2.50900000000000    1.34800000000000
C        -0.54900000000000    3.74100000000000    1.45500000000000
C         0.74600000000000    3.49700000000000    1.92200000000000
C        -2.57800000000000    2.42500000000000    1.66300000000000
C        -1.46300000000000    3.04200000000000    2.25000000000000
C        -3.77700000000000    0.32700000000000    1.44500000000000
C        -3.44400000000000   -0.95000000000000    1.90600000000000
C        -3.13100000000000    1.27300000000000    2.24600000000000
C        -2.58100000000000   -0.78900000000000    2.99300000000000
C        -2.38900000000000    0.57900000000000    3.20600000000000
C        -1.46700000000000   -2.86800000000000    2.41500000000000
C        -0.23400000000000   -3.43500000000000    2.08500000000000
C        -1.45100000000000   -1.61600000000000    3.04500000000000
C         2.12000000000000   -2.95300000000000    1.73600000000000
C         3.08300000000000   -1.94000000000000    1.74200000000000
C         0.91700000000000   -2.70400000000000    2.41000000000000
C         3.42000000000000    0.44000000000000    2.10100000000000
C         2.78100000000000    1.63700000000000    2.43500000000000
C         2.79000000000000   -0.76400000000000    2.44700000000000
C         0.63400000000000    2.62400000000000    3.00800000000000
C        -0.72100000000000    2.34600000000000    3.20800000000000
C        -1.09000000000000    1.02300000000000    3.49100000000000
C         1.55400000000000    1.57000000000000    3.11100000000000
C        -0.34100000000000   -1.23200000000000    3.81000000000000
C         0.89200000000000   -1.80000000000000    3.48000000000000
C         1.85100000000000   -0.78400000000000    3.48800000000000
C        -0.14500000000000    0.13500000000000    4.02300000000000
C         1.21000000000000    0.41100000000000    3.82200000000000
80
 energy: -171.302210563441 gnorm: 0.175700118963 xtb: 6.3.3 (4ae9cef)
C         0.15060281535117   -0.14325664119499   -4.03324089915417
C         0.34828956859862    1.23675449170170   -3.81966524249156
C        -0.89696832116282    1.81028285009167   -3.48645987790547
C        -1.21816154412708   -0.42300225843901   -3.83051566304740
C        -1.86566054870685    0.78503723131617   -3.49383966653446
C        -1.58873779011777   -1.60539013087919   -3.17914474918145
C        -0.64471269801845   -2.62699592795591   -3.01846511268124
C         1.11394646773240   -1.04820157001153   -3.57101828028889
C         0.72601335286275   -2.34601442836828   -3.22138925528658
C         2.38838428332929   -0.58679868409646   -3.21758320489317
C         1.48902093486782    1.65790523158724   -3.12634634439044
C         2.58295998397841    0.79622071200009   -3.00397754049160
C         1.47270929492700    2.86934810756936   -2.42695452904009
C        -0.94290073056209    2.77590914064098   -2.47453728923586
C         0.22637980619475    3.44265100244189   -2.09342397623440
C        -2.12102064278577    2.96166641797138   -1.74514600101735
C        -2.85692834302518    0.78044124875079   -2.50503879255896
C        -3.09332926396271    1.93668246343426   -1.75093453984049
C        -2.78226683450419   -1.64345293530055   -2.44764556431658
C        -3.42947015831455   -0.43279040623218   -2.11028223449294
C        -2.89507502026992   -2.52213212926090   -1.34986404808070
C        -0.75599173285620   -3.50634015858316   -1.92163882852440
C        -1.83007828726513   -3.37724021967954   -1.02815775095568
C         1.47316124273151   -3.04847947877572   -2.25322221286904
C         0.55255977709300   -3.75828177807263   -1.44886807073201
C         3.13664044216601   -1.28680777117663   -2.24840382016828
C         2.61710357868465   -2.46300687712978   -1.68920337911586
C         3.45296012162839    0.95829774843398   -1.90509618724548
C         3.79177131531707   -0.33038109138084   -1.43814699190178
C         2.34136636412709    3.03778024627530   -1.32828708909560
C         3.23762396036899    2.01017986621265   -1.00206525060920
C         0.31961926835131    3.96814507833122   -0.78768012354407
C         1.62751597160797    3.71737491171617   -0.31529550040604
C        -2.03402992992953    3.48416967683502   -0.43729208363955
C        -0.78277358072258    3.86056714577874    0.07257853734955
C        -3.61012333028273    1.81972932479765   -0.44385625117182
C        -2.95418431299002    2.77564922387099    0.36601968233765
C        -3.94793958600390   -0.55301000431320   -0.80336630275633
C        -3.60865556123935   -1.84276360800399   -0.33639764900239
C        -3.92846375847203    0.55147878926396    0.06234589649645
C        -3.23858826216479   -2.01106050325958    1.00197729680294
C        -1.62851332747745   -3.71838680675417    0.31509416582664
C        -2.34232295249425   -3.03877058104066    1.32759183232113
C         0.78186517597334   -3.86147445108370   -0.07335131453662
C        -0.32004766312096   -3.96916377614526    0.78696453096667
C         2.95307422543173   -2.77593044501041   -0.36616070928372
C         2.03311530061356   -3.48508418433667    0.43715112048900
C         3.92748760721822   -0.55233371481959   -0.06244143139498
C         3.60912353318430   -1.82062003515971    0.44368771228090
C         3.60832745517764    1.84192993902503    0.33624479541847
C         3.94696288144304    0.55217903241217    0.80328600835340
C         1.82911953357610    3.37632380119634    1.02802172371500
C         2.89425291514591    2.52186845300913    1.34972492145721
C        -0.55347732647646    3.75729556430668    1.44857989382470
C         0.75503195103167    3.50610089118102    1.92153450307184
C        -2.61812970683145    2.46263783589756    1.68856389539577
C        -1.47407823905029    3.04750722655276    2.25245613976671
C        -3.79275413789010    0.33012550945621    1.43812755858313
C        -3.45396548323053   -0.95918036102811    1.90444891913085
C        -3.13757472875649    1.28591061703402    2.24831681097811
C        -2.58388961712092   -0.79717083312900    3.00315463633068
C        -2.38884225671488    0.58582020628429    3.21738214870604
C        -1.47359739408106   -2.87024791572721    2.42618711431901
C        -0.22734469377940   -3.44355539701911    2.09262792414089
C        -1.48996033121626   -1.65886588084707    3.12613834676570
C         2.12007909737211   -2.96267629280169    1.74499364612026
C         3.09240402605950   -1.93763804070315    1.75085612145788
C         0.94191700232906   -2.77687352453863    2.47435927783126
C         3.42848438539052    0.43250149771630    2.11019951838801
C         2.78137959322265    1.64319895010095    2.44754620343057
C         2.85588985808373   -0.78128814253431    2.50425191890377
C         0.64366714418591    2.62616637061181    3.01835344648345
C        -0.72698650399556    2.34517287747244    3.22124253203825
C        -1.11489765655943    1.04727452646317    3.57084726452620
C         1.58770549780396    1.60454154499904    3.17844545131500
C        -0.34924203493796   -1.23762331164037    3.81885315305795
C         0.89596459618212   -1.81112215974201    3.48566442513474
C         1.86459388469268   -0.78534649145038    3.49298532852590
C        -0.15153814917864    0.14283933256090    4.03322489067880
C         1.21714822635978    0.42209386232429    3.83037446539618
80
 energy: -171.386953202862 gnorm: 0.081229785967 xtb: 6.3.3 (4ae9cef)
C         0.15393242951458   -0.14717277536812   -4.04112764483988
C         0.35235332311840    1.24047602456265   -3.82670237487938
C        -0.89948743057535    1.81686354407275   -3.49174838425523
C        -1.22256588236655   -0.42859842726282   -3.83777351000113
C        -1.87350278855968    0.78625050657364   -3.49867842056401
C        -1.62195062802261   -1.63920040890472   -3.24532174005030
C        -0.65101830992699   -2.63069717229623   -3.02678992832056
C         1.13874111391766   -1.07189910359291   -3.65035938970593
C         0.73053144506176   -2.34748306281237   -3.23179754637661
C         2.38982865302088   -0.59089739892093   -3.22614282441659
C         1.52848518798161    1.70176963806722   -3.20935468913165
C         2.58680986134247    0.80182975286767   -3.01158251922478
C         1.47757857442462    2.87279477263854   -2.43468426318398
C        -0.96811661047101    2.85019137181398   -2.54068535932306
C         0.22286545789556    3.45010589313444   -2.09897930841884
C        -2.12243572679475    2.96966302882171   -1.75145597337427
C        -2.92240112139214    0.79810060052282   -2.56194634019709
C        -3.10063674088236    1.93692160810523   -1.75702156258606
C        -2.78474095144078   -1.64886407161709   -2.45662300544071
C        -3.43751334713257   -0.42872989329784   -2.11709063447774
C        -2.89800566336172   -2.53024920767422   -1.35328097619951
C        -0.76113666183955   -3.51342966103560   -1.92436464949451
C        -1.85510832430120   -3.42359741873414   -1.04220626001964
C         1.47932593591390   -3.05358205221356   -2.25715659122048
C         0.55614303543202   -3.77155809647306   -1.44694621991168
C         3.14212849814765   -1.29413679788832   -2.25283710835583
C         2.65450668434771   -2.49834682353288   -1.71282244495589
C         3.46057673920893    0.96411405537293   -1.90659925721739
C         3.80420004570878   -0.33191484070392   -1.43588260797223
C         2.35025368149479    3.04138412724829   -1.33098594600934
C         3.29385068170485    2.04493569296370   -1.01874262116722
C         0.31587977132415    3.97749116346814   -0.78692898454882
C         1.63262660044579    3.72591807656131   -0.31026496923357
C        -2.03462643798777    3.49393112718389   -0.43693660318038
C        -0.79609561247786    3.92750291519092    0.07477355128524
C        -3.62048472603440    1.81962660006636   -0.44408031354147
C        -2.96095927587031    2.78295698814534    0.37320517219676
C        -3.95649019755737   -0.55106447869799   -0.80337438496420
C        -3.61944361400235   -1.84938112596869   -0.33052375829018
C        -3.98608368535349    0.55948959625946    0.06353610863881
C        -3.29478768108211   -2.04577397095235    1.01849834197050
C        -1.63359789494184   -3.72689281876494    0.30990858817704
C        -2.35119194022362   -3.04234023265278    1.33053361154087
C         0.79525506176543   -3.92839591171661   -0.07530372578735
C        -0.31668206080111   -3.97848821209243    0.78643811032561
C         2.95983396911843   -2.78350835031205   -0.37349116678803
C         2.03375195990629   -3.49479364384751    0.43665970516509
C         3.98509899181388   -0.56022645889348   -0.06371624192077
C         3.61948045274274   -1.82041013035919    0.44379232712789
C         3.61877773765134    1.84866184258273    0.33025910270141
C         3.95557172075872    0.55035614802691    0.80320783157813
C         1.85416902859017    3.42280967956196    1.04194768312106
C         2.89726030622422    2.52973048654189    1.35304816820422
C        -0.55702388849140    3.77065496322556    1.44648335327206
C         0.76020072884155    3.51292599508390    1.92416574442050
C        -2.65552889833617    2.49768951905411    1.71245925256640
C        -1.48019821199159    3.05267595267491    2.25661556811038
C        -3.80518993126159    0.33136115072098    1.43575923425279
C        -3.46153015621107   -0.96490436737035    1.90619690199317
C        -3.14302339256303    1.29337421953758    2.25262215477118
C        -2.58765806253380   -0.80272190545317    3.01098542769506
C        -2.39062388017558    0.58998988516590    3.22578932124998
C        -1.47842459970316   -2.87363639568603    2.43413098391682
C        -0.22376575753811   -3.45097616947672    2.09839422671349
C        -1.52941473139384   -1.70271577653528    3.20895158523055
C         2.12153878252998   -2.97064852320764    1.75119551186352
C         3.09973259172083   -1.93780940187226    1.75681490279232
C         0.96715901597630   -2.85114392066330    2.54033578070486
C         3.43658071089738    0.42817417207795    2.11691735770117
C         2.78391064486193    1.64836472069136    2.45643326168285
C         2.92138458285846   -0.79880650881050    2.56140268122742
C         0.64998969619287    2.62999824639943    3.02659564656180
C        -0.73149764851697    2.34674472878755    3.23154232663200
C        -1.13966906149081    1.07109123520502    3.65013815099801
C         1.62093033682237    1.63848397800742    3.24491307671821
C        -0.35329441599508   -1.24124402056555    3.82605660471034
C         0.89847717726369   -1.81758031538860    3.49109778850728
C         1.87243126411651   -0.78685035901770    3.49799822727844
C        -0.15483747602403    0.14643669106853    4.04101460624012
C         1.22159094496649    0.42782951257912    3.83749226970291
80
 energy: -171.410843450937 gnorm: 0.019184439583 xtb: 6.3.3 (4ae9cef)
C         0.15554110605334   -0.14694844759828   -4.05090834259459
C         0.35465390844164    1.24561729262098   -3.83691891337364
C        -0.90163395820968    1.82395453397726   -3.50082560543631
C        -1.22548555206720   -0.42954405359738   -3.84671565633088
C        -1.87859355251666    0.78956292718731   -3.50670171740707
C        -1.64526438712202   -1.66194234580982   -3.29339260515710
C        -0.65461890314216   -2.63522071044052   -3.03614911494303
C         1.15604117025359   -1.08743137724659   -3.70830482076334
C         0.73351636830377   -2.35050889237938   -3.24265575437781
C         2.39290819005661   -0.59167385491253   -3.23629626270685
C         1.55664409994789    1.73488234420917   -3.27211330383522
C         2.59139621360457    0.80755410863466   -3.02204645773849
C         1.48117933644847    2.87900819893531   -2.44551757817815
C        -0.98651789991089    2.90526174391065   -2.59153418720320
C         0.22058110903155    3.45914898378350   -2.10835754342434
C        -2.12551303628359    2.97891480639367   -1.76026063206892
C        -2.96872778641072    0.81176125562288   -2.60436467066971
C        -3.10742668539392    1.94076373772792   -1.76488507253913
C        -2.78976582511575   -1.65248190107584   -2.46534640366875
C        -3.44599767360983   -0.42638005545530   -2.12487765627528
C        -2.90217142187279   -2.53412638000640   -1.35772695467633
C        -0.76327521215862   -3.51845185044064   -1.92931777408428
C        -1.87093858818565   -3.45307205768974   -1.05091748310021
C         1.48197932730806   -3.05802244143155   -2.26289557940579
C         0.55840616359109   -3.78068741073231   -1.44819633634927
C         3.14591932842806   -1.29640070024861   -2.25916616817285
C         2.67871803628233   -2.52105399132067   -1.72840977167025
C         3.46652028204754    0.96857570813423   -1.91263260369103
C         3.81164081322169   -0.33141329446291   -1.43783650383050
C         2.35491570514132    3.04608152950132   -1.33756666175951
C         3.33187599840822    2.06900301074638   -1.03138551491500
C         0.31370790863211    3.98546598499925   -0.79167745153239
C         1.63468954242110    3.73142325465696   -0.31137916957383
C        -2.03721810223260    3.50245680392169   -0.44102100879696
C        -0.80539591877656    3.97359608821881    0.07483293986491
C        -3.62711454335695    1.82209142642559   -0.44789364918933
C        -2.96522319051821    2.78880349295610    0.37409925461030
C        -3.96357243052942   -0.55083856934636   -0.80665752321142
C        -3.62781563543560   -1.85346311441330   -0.32896995490211
C        -4.02373777365846    0.56493418898946    0.06392345363465
C        -3.33276013315925   -2.06979817003919    1.03103092926533
C        -1.63562993697632   -3.73234033522704    0.31098177348477
C        -2.35584976866817   -3.04696042371921    1.33721469560039
C         0.80453912465133   -3.97441786862718   -0.07520789875555
C        -0.31466295199470   -3.98639035540853    0.79128052971981
C         2.96417294919674   -2.78950358354528   -0.37443715707186
C         2.03631774935811   -3.50325990081946    0.44068662554113
C         4.02276009870925   -0.56563774437405   -0.06416722793926
C         3.62613307944788   -1.82281557044833    0.44758822667317
C         3.62694366042149    1.85277600911859    0.32866461761956
C         3.96268865374512    0.55015683712636    0.80640384119306
C         1.86999263701161    3.45231906863700    1.05058030156155
C         2.90136071376580    2.53344441287919    1.35743967107065
C        -0.55929031455225    3.77986641880019    1.44776290791620
C         0.76235940003303    3.51774253803834    1.92904323131314
C        -2.67968452236866    2.52027601026514    1.72812714952924
C        -1.48287066150182    3.05718334301514    2.26250601495378
C        -3.81263118933069    0.33064998583674    1.43758694602509
C        -3.46743234134596   -0.96934250168570    1.91231000675171
C        -3.14679577006522    1.29566504510425    2.25885479100706
C        -2.59223390758551   -0.80837665340117    3.02162356628363
C        -2.39381871913171    0.59084424185620    3.23590780586073
C        -1.48204501256860   -2.87981639382407    2.44508146994369
C        -0.22145346855046   -3.45998055074735    2.10789991323690
C        -1.55757796551061   -1.73578030766855    3.27167959811239
C         2.12462919881193   -2.97979389654369    1.75996192576152
C         3.10652581067195   -1.94158097737474    1.76459660281344
C         0.98557605084230   -2.90612047676596    2.59111900530465
C         3.44508128861334    0.42568222499897    2.12461040446678
C         2.78890309501769    1.65182470999779    2.46508158585199
C         2.96775915951515   -0.81244065392867    2.60399521350189
C         0.65365052889679    2.63452537225586    3.03587625363971
C        -0.73447161311822    2.34974988585661    3.24231000228515
C        -1.15694883800773    1.08664973903866    3.70796330677329
C         1.64428149842843    1.66123626689892    3.29308708741896
C        -0.35560471297230   -1.24636491590540    3.83644079991753
C         0.90064128850217   -1.82466644155747    3.50030779105472
C         1.87756409475551   -0.79033356168876    3.50619043670553
C        -0.15647307212056    0.14610591843979    4.05064576875199
C         1.22452828801740    0.42882328219109    3.84633824629953
80
 energy: -171.412475406243 gnorm: 0.007668667701 xtb: 6.3.3 (4ae9cef)
C         0.15593628832275   -0.14380435778089   -4.06128661161330
C         0.35558006875464    1.25170762503075   -3.84922094355327
C        -0.90340451247092    1.83131626755282   -3.51258076725065
C        -1.22700839019664   -0.42708995922060   -3.85568883961776
C        -1.88144295538864    0.79421951043283   -3.51648653562270
C        -1.65074458115012   -1.66458679318123   -3.30896385132445
C        -0.65575253186166   -2.63489835325592   -3.04230026571566
C         1.15944808717278   -1.08856157051241   -3.72763077747544
C         0.73407469911640   -2.34974381641005   -3.24974748766851
C         2.39337789135319   -0.58931683813711   -3.24473262336151
C         1.56369300321042    1.74707402809993   -3.29651086263862
C         2.59273157164727    0.81263365955546   -3.03216122671133
C         1.48212084190179    2.88453087939520   -2.45721728445689
C        -0.99235328982968    2.92371088052445   -2.61298023686982
C         0.21875826887685    3.46606148330993   -2.11947343500056
C        -2.12730673378482    2.98559499902396   -1.77012842780918
C        -2.98041091182232    0.81757016474238   -2.62056514021373
C        -3.11011952354950    1.94461432634631   -1.77318131060907
C        -2.79156356825087   -1.65166495827184   -2.47135365744053
C        -3.44904850334611   -0.42381462452449   -2.13137172418106
C        -2.90197626969739   -2.53247996803419   -1.35981440378098
C        -0.76314006674351   -3.51701399572805   -1.93135045306600
C        -1.87212271235520   -3.45576543225701   -1.05077170496575
C         1.48139134657909   -3.05705844230883   -2.26558098552638
C         0.55869856390204   -3.78026235402130   -1.44772312339629
C         3.14426266227639   -1.29435900800301   -2.26272687254476
C         2.68141305428266   -2.52308340664037   -1.73040324722853
C         3.46671597562454    0.97144860059144   -1.91839967691160
C         3.80995011713496   -0.32959636642658   -1.43951163033678
C         2.35457303742030    3.04789737178749   -1.34447574957009
C         3.33800582810692    2.07429278935306   -1.03616014245381
C         0.31212726860657    3.98808939820997   -0.79835849840547
C         1.63305345863322    3.73053986391235   -0.31544267325809
C        -2.03782974851688    3.50583219381634   -0.44694530019194
C        -0.80722794820925    3.98276489219520    0.07196744414227
C        -3.62659399786494    1.82312316856088   -0.45256758794469
C        -2.96363308539204    2.78908793771917    0.37111966829330
C        -3.96397790490504   -0.54992082700326   -0.80976290475498
C        -3.62750414729838   -1.85286359366536   -0.32872311679039
C        -4.02815096720108    0.56611706989600    0.06328846462941
C        -3.33889787467984   -2.07507023633540    1.03578520508868
C        -1.63397845824608   -3.73138862243986    0.31506734855583
C        -2.35550163186955   -3.04870701309432    1.34412602445642
C         0.80633792168925   -3.98352962724990   -0.07230446147773
C        -0.31307909668287   -3.98893116901977    0.79798784516852
C         2.96263950807606   -2.78982341004298   -0.37146558314378
C         2.03690561929620   -3.50659883523945    0.44661030663842
C         4.02719826845833   -0.56685494013230   -0.06359754811358
C         3.62564273799913   -1.82385718996862    0.45225017696466
C         3.62658035350518    1.85214083035681    0.32838727730875
C         3.96307786303126    0.54919370181999    0.80943826785251
C         1.87117746806627    3.45499670340971    1.05041304655018
C         2.90109426702761    2.53173290160539    1.35948650081497
C        -0.55959929305306    3.77948219570854    1.44735219609613
C         0.76222859676110    3.51624488061417    1.93103109006994
C        -2.68235600008675    2.52230372009443    1.73008828168540
C        -1.48230831170821    3.05625863808810    2.26522597698481
C        -3.81091675815562    0.32879437792770    1.43918169359394
C        -3.46763454646110   -0.97221743681394    1.91806338178755
C        -3.14515493586964    1.29360434831711    2.26237601632938
C        -2.59361399962323   -0.81341804696973    3.03179238068478
C        -2.39430544477049    0.58852772180177    3.24437022004722
C        -1.48301711055712   -2.88530194715767    2.45682005856575
C        -0.21964852830028   -3.46685043172358    2.11907353001208
C        -1.56463167612855   -1.74791259182833    3.29614092217723
C         2.12642037451196   -2.98640395984588    1.76982397505379
C         3.10922837753543   -1.94540873690968    1.77286392160692
C         0.99142790677791   -2.92452004237613    2.61261666585696
C         3.44812218524259    0.42306171586905    2.13103678047873
C         2.79065927215725    1.65092833536880    2.47103030963622
C         2.97947660253178   -0.81829965334098    2.62023617191465
C         0.65482074054335    2.63415096762783    3.04197516729434
C        -0.73501489251825    2.34896180200859    3.24937741455914
C        -1.16036170537218    1.08777971561222    3.72726109404281
C         1.64978887834649    1.66382080772521    3.30862767350389
C        -0.35652428008696   -1.25247362495228    3.84885322181543
C         0.90245045406962   -1.83207163039389    3.51218147021637
C         1.88047377623050   -0.79502041446243    3.51607283860255
C        -0.15687385864796    0.14299063474701    4.06096904388404
C         1.22606754787271    0.42634311692125    3.85529860003163
80
 energy: -171.412611070979 gnorm: 0.005844535089 xtb: 6.3.3 (4ae9cef)
C         0.15596013429677   -0.14210345276456   -4.06634148621633
C         0.35583995643339    1.25465153607063   -3.85535865960257
C        -0.90423726387392    1.83479005864370   -3.51851570723540
C        -1.22762577222106   -0.42566429471084   -3.85996357078984
C        -1.88262193152845    0.79648756912245   -3.52137533870333
C        -1.65065614158230   -1.66277208227199   -3.31152617781910
C        -0.65579765380734   -2.63374489957985   -3.04475687789860
C         1.15886284321189   -1.08699689909052   -3.73102635900040
C         0.73372355032816   -2.34868059401381   -3.25249568416042
C         2.39295802826241   -0.58762467049209   -3.24837160280230
C         1.56389238285190    1.74961584450410   -3.30239218661753
C         2.59271099169773    0.81472579198546   -3.03683123619863
C         1.48197864350774    2.88689017453392   -2.46276244579769
C        -0.99332059259019    2.92690764707101   -2.61875450474866
C         0.21801238938240    3.46875410563018   -2.12492821443048
C        -2.12798079252036    2.98808977478809   -1.77492437918372
C        -2.98075053703251    0.81900550583509   -2.62436592187152
C        -3.11052489939691    1.94631232404280   -1.77719320272478
C        -2.79180625861312   -1.65034863906961   -2.47381357193993
C        -3.44943820789453   -0.42268432349468   -2.13432772265354
C        -2.90099024813111   -2.53081197385244   -1.36017081097336
C        -0.76271965452242   -3.51520709887498   -1.93156055184507
C        -1.87044808097254   -3.45292800759572   -1.04938286559205
C         1.48066336424273   -3.05562788044695   -2.26614682083006
C         0.55840255071383   -3.77816264179828   -1.44705128485226
C         3.14242578286064   -1.29276047274274   -2.26348786026429
C         2.67932420210298   -2.52083253014018   -1.72921665807595
C         3.46573296580886    0.97251672263478   -1.92074920083074
C         3.80735023331790   -0.32869400007977   -1.43992898080427
C         2.35354729987261    3.04795317517145   -1.34734766043655
C         3.33585006051497    2.07376335492257   -1.03701217959456
C         0.31143884782903    3.98810181804512   -0.80139836880661
C         1.63161527953944    3.72870256940088   -0.31747300460044
C        -2.03757551145058    3.50636199342884   -0.44979569687810
C        -0.80687226779200    3.98112616806512    0.07030807328219
C        -3.62493303660498    1.82310815222340   -0.45454755414583
C        -2.96172273550748    2.78790111155589    0.36929055322087
C        -3.96297308997313   -0.54929546179731   -0.81100817961486
C        -3.62556203075292   -1.85172602824910   -0.32876487970112
C        -4.02502715509405    0.56598658917710    0.06284382445414
C        -3.33676284507235   -2.07453832066738    1.03664970325111